     768
 i =        0, time =        0.000, E =     -4404.0181734974
  O         3.2559010000        3.6884050000       12.2331960000
  O        16.0709150000        1.8552240000        2.6718830000
  O        14.4304160000       11.1665660000        6.9655950000
  O         3.1935590000        0.0232080000        0.5780670000
  O         7.7274740000        2.9237440000        1.4206450000
  O        15.6258210000       12.7432720000        4.9657160000
  O         5.6670530000        6.7618020000        4.2745830000
  O         8.6799880000       11.1557670000       16.5283460000
  O        16.4376500000        6.5520640000       14.7658670000
  O         9.7439130000        0.8468140000       13.5835780000
  O        11.6114810000       14.0734080000       17.1812130000
  O         2.3345280000       14.4453300000       14.3571760000
  O         6.8998340000       18.9798400000        2.4012000000
  O        17.1354030000        7.9482230000       18.4920810000
  O         0.3011160000       19.3784860000       10.7119620000
  O         3.3558490000       15.0558560000       16.7611540000
  O         4.1913570000       12.9234940000       13.0546580000
  O        13.4044000000        2.5833120000        3.0426740000
  O        11.4582160000        7.7249380000        0.0831290000
  O        15.3284690000        4.8251430000       16.9734430000
  O        18.3771670000        2.0766040000       13.1629430000
  O         5.0010310000        6.0138150000       17.6328070000
  O         7.5652130000        0.6351750000       10.6863860000
  O         3.0711480000       15.4659480000        5.8616050000
  O         7.5976750000        9.3817490000       12.9668760000
  O        15.3985710000        1.9421030000        8.1537020000
  O        15.7733560000       18.9235640000       13.5226810000
  O        11.6340860000       11.2607270000        8.4268200000
  O        10.6947510000       16.7072500000        4.5117650000
  O         1.5206520000        7.1887470000       18.5971890000
  O         9.2622060000        7.9381210000       14.4123530000
  O         7.0921530000        0.4774850000       14.7049750000
  O        11.4182100000        7.2985440000       10.4471680000
  O        12.0458290000       12.5348930000        0.9894960000
  O         9.3742210000        1.2104960000        5.1958530000
  O         1.3833290000       19.3215310000        3.8241440000
  O         7.8836810000        3.1019880000       15.2468670000
  O         8.3744880000       11.4286840000       11.7155910000
  O        10.6620760000       10.2821900000        0.3365660000
  O         3.4307520000       10.6783590000        9.6836140000
  O         7.2055620000       13.5890120000       16.3721270000
  O         2.8530990000        0.9630680000       13.7965870000
  O        19.0142480000        6.4803300000       17.0944280000
  O         4.1938800000        2.8284390000        9.9156390000
  O         5.4825660000        7.2955030000       11.8063900000
  O        19.4717240000        1.7347250000        4.3073530000
  O         3.4496450000        1.4158750000        2.7698270000
  O        14.0905570000        3.2801330000       15.1118470000
  O        15.5937290000        1.8407390000       13.4439370000
  O        12.3236830000        2.3673830000       10.3999770000
  O        16.9247190000       16.3758670000       11.2904930000
  O        17.3683330000       18.1082760000        0.4869650000
  O         6.1285960000        9.1416630000        5.5507950000
  O        12.8657980000       16.5430550000        0.7818930000
  O        18.1326500000       12.6782320000        5.8684950000
  O        10.0633600000        9.3526670000        9.2240440000
  O         6.8519070000       12.3617880000        5.4073600000
  O         3.6468070000       18.1913740000       11.3449200000
  O         9.6516520000        5.1463480000       14.0292260000
  O        14.7021550000       19.3186940000        7.3379330000
  O         4.7047220000        3.5572520000       14.6931430000
  O         4.4393230000       12.2930400000       16.2131100000
  O         2.9506850000        3.4959880000        4.6535860000
  O        17.6456460000       11.8851710000       16.0787990000
  O         3.8678030000       12.7845980000        2.9858520000
  O         1.5168400000        3.4650290000       17.9591520000
  O        17.0519300000        2.4504410000       17.0798460000
  O        19.0525760000       18.1548590000        2.5428520000
  O        18.5396340000       15.7424510000        5.3699520000
  O        16.9415090000        4.7974140000       12.1273660000
  O        18.1089980000        8.0143780000        8.9148540000
  O        11.7357720000       15.6187600000       10.5830480000
  O         6.5272370000       16.6381420000        6.8178350000
  O         4.7391750000       17.2413590000        1.7129420000
  O        15.7636940000       16.0150690000       15.1251150000
  O        14.6336590000        8.5027900000        5.9798030000
  O        17.9904060000       19.1861380000        6.7114490000
  O        17.0876480000       19.2618910000        4.2353360000
  O         6.4384570000       14.1587980000       13.6593550000
  O         8.6379430000        5.9757110000        5.7143790000
  O         3.6964920000       13.3676600000       10.3716990000
  O        10.7131090000        4.2767330000       19.4582570000
  O        12.1915940000       14.2675730000        3.2274570000
  O        19.6207980000        1.7453240000       15.9301040000
  O        14.8401050000       15.1304190000        3.5946170000
  O        18.5359090000        1.8439860000        7.8331540000
  O        19.5346500000       16.6257260000       16.4619360000
  O         1.1346770000       12.8831400000        2.5033690000
  O        17.9111470000       17.3560650000       14.3360230000
  O        19.0657290000       19.1774560000       17.2613820000
  O        13.4137260000        3.9332940000       18.9368490000
  O        19.3755780000        9.2926360000        2.1689310000
  O        10.2736330000       16.5492010000        1.7118510000
  O         8.5258880000        3.1175050000       11.4288610000
  O         9.3226320000       19.2940950000        3.0393980000
  O         2.6249550000       11.5541520000        7.3727250000
  O         6.4874490000       16.9456190000       15.2163640000
  O        10.8063710000       18.6285830000       16.4980680000
  O        14.2767480000        6.2328260000       10.3425180000
  O         6.4557330000       10.0379310000       15.3440370000
  O        17.4237470000       15.4818980000        0.0655490000
  O         8.4012000000       10.4344030000        6.7628310000
  O         4.3518160000       16.0285400000        9.8368890000
  O        16.6128170000       16.6554860000        7.0640140000
  O        12.1984660000        7.9180980000        4.8151680000
  O         0.4049210000       14.9049480000       18.7867770000
  O         5.1196350000       16.8802670000       17.7315200000
  O         5.1402090000        6.5573870000        0.7725340000
  O        18.9039650000       17.3973770000        9.1611720000
  O         5.2588660000       19.6042760000       12.7266620000
  O        13.9245460000       13.7314710000       13.5760970000
  O        14.5946050000        8.8265090000       11.8073220000
  O         6.3656140000       19.5806630000       17.2333100000
  O        14.4919660000       18.1280830000       16.4491380000
  O        16.3417370000       11.9861950000        0.4794000000
  O        12.9064120000       19.0581930000        1.5774410000
  O         9.0234520000        7.0555360000       19.3847660000
  O         9.8288020000        8.3699600000        6.4184950000
  O         6.5931630000        4.5472190000       12.7933840000
  O        16.3684250000       18.5071380000        9.4794350000
  O         5.8201270000       11.0586390000        0.4601540000
  O        12.5703330000       18.4819940000        4.1775790000
  O        10.7821490000        4.9420740000       16.3988260000
  O         6.0410420000       15.2723210000        0.7870930000
  O        10.1591360000       16.7804190000        8.7483930000
  O         2.5659820000       17.4749420000        7.8029710000
  O         2.3729180000        4.1589290000        8.0494430000
  O         1.6186990000        1.5885230000        7.2082230000
  O        14.2183290000       18.2369100000       11.2722030000
  O         8.3939450000       14.7359750000        8.4575690000
  O         7.2339050000       10.7455780000        9.1563400000
  O         4.5013070000        3.4664440000       18.7632720000
  O        14.9618670000       10.2942750000        9.5651780000
  O        15.5874100000       13.4987380000       16.8279080000
  O        17.8199410000        0.9388420000       10.3978670000
  O        15.1523870000       15.6248320000        9.1915030000
  O         1.3010350000        4.8305510000        3.0699710000
  O        13.4666620000        7.4370130000       14.2969700000
  O         7.7932730000       10.3220160000        3.7243000000
  O        15.3965630000        7.9098170000        8.3196410000
  O         4.0968700000        6.6339550000        8.4841600000
  O         5.4588360000        8.9375660000        9.7497950000
  O        18.5640460000        4.2736890000       18.4722430000
  O         0.5077890000        9.8630450000       19.4194630000
  O         8.5365230000       16.5083060000       19.3148510000
  O        10.5730130000       11.3480210000        4.3703870000
  O        11.1731370000       11.5254830000       12.5064520000
  O         6.5261800000        5.9752640000       15.4108600000
  O         4.6663200000       13.2348510000        6.6754270000
  O         6.4029450000       13.1519640000        8.8833780000
  O        14.3760390000       10.8342610000       14.0167120000
  O        12.4149620000       17.9521950000        7.7815210000
  O        15.0104770000       14.7673350000       19.1675460000
  O        19.0300000000       14.6112630000       12.5851500000
  O        13.6878620000       10.8916290000       16.6701750000
  O        18.2289130000        4.4859680000        7.3043540000
  O        19.4520200000        4.6049550000       11.1923550000
  O         5.5513540000        0.4653770000        8.3197750000
  O         6.5082590000       14.4112820000        3.2386310000
  O        12.2216390000       13.0298400000       10.5835930000
  O         4.0661020000        9.9242260000       13.1114590000
  O         8.5621320000        5.4951160000        1.8085490000
  O        14.8115540000        4.9231880000        3.6361130000
  O         6.2588110000       19.3389250000        5.5223510000
  O        11.3443850000        1.6829120000        8.0584180000
  O        16.5465340000       19.7029950000       18.0304290000
  O         3.5311110000       10.3174320000       18.9436180000
  O         6.4914990000       16.1217380000       11.6375430000
  O         7.5281560000        8.0904780000        1.8713010000
  O         7.3871130000        2.9624590000        5.3732660000
  O        14.7867130000       13.5349780000       11.0945180000
  O        18.9698300000        3.1068820000        2.1082790000
  O         8.8372480000       18.1191520000        6.0813320000
  O        16.6627750000        8.4664310000        3.9530000000
  O        13.0823130000       10.4544140000        3.2586370000
  O         8.8006840000        5.1653800000        8.2656210000
  O         8.3548460000        7.7549980000       16.9245720000
  O         2.6365800000        7.6937800000        6.1958450000
  O        13.3793170000        6.7976640000        1.8276980000
  O         8.1122120000       10.3011310000       19.1560160000
  O         8.3844190000       14.0743780000       11.8893300000
  O         0.6257720000        5.5015430000        5.7626000000
  O         0.5016320000        7.5762430000       11.6072460000
  O        13.1377210000       19.6872470000       14.7491340000
  O         3.3705470000       15.4207210000        3.0671920000
  O        19.6188240000        8.1844120000       14.6615110000
  O        12.3078640000        1.1348250000        5.1673650000
  O        17.0833670000        2.4591900000        5.6327170000
  O         8.8966590000       19.2041600000       18.3784930000
  O        19.4628060000       11.1376480000        4.2274270000
  O         1.4576090000       16.6469830000        1.4777920000
  O         2.4207300000        6.7232090000        1.6329120000
  O        14.5608260000        8.8723320000       18.2181300000
  O         3.0465900000        6.0048200000       10.9801120000
  O         9.5940070000       19.4483170000        8.2873170000
  O        13.1732400000       15.3177180000        7.2814340000
  O         3.4888560000        8.1798980000       17.1101850000
  O         1.0401290000        9.8173830000       10.0083680000
  O         0.9437180000        9.7071840000        6.7819860000
  O        11.0320500000        2.0006660000       15.8441500000
  O         5.6567680000       13.2428760000       18.7126870000
  O         0.6374740000       19.0208370000        0.0881860000
  O         9.1489520000       13.4417010000        3.2638510000
  O        16.6966810000       11.4525410000       11.2822310000
  O         2.6285200000        9.0350260000        3.3052850000
  O         9.5430590000       16.7977660000       15.2293360000
  O         0.0592690000       19.5467630000       13.6829130000
  O         1.1425950000       13.9073310000        7.2034000000
  O         0.4671440000       17.7367380000        6.0042390000
  O         9.6412310000       12.9134440000        7.1005470000
  O         5.9210250000       16.9680380000        4.2263610000
  O        19.5184320000       13.7755180000       15.1902410000
  O         0.4354990000        5.6747840000        8.8351790000
  O        13.8798280000        4.1868410000        7.4280270000
  O        14.7779920000        2.9171780000       10.9079890000
  O         2.6517620000        0.5461510000        9.6197480000
  O        11.5886590000        8.7976260000       13.0858100000
  O         2.6387480000        4.8353300000       15.7694100000
  O         6.7615300000        3.3525280000        7.9893930000
  O        10.5692960000        4.9446140000        4.1634680000
  O        13.8639260000       10.4406230000        0.5193310000
  O        17.6514500000        7.3272790000        1.4199280000
  O         2.7671950000        7.6857780000       14.3753890000
  O        18.0116270000       15.0486890000        2.8037820000
  O         9.2868130000       14.9927270000       17.2108330000
  O         9.5506970000       18.2478930000       10.9878690000
  O        13.5659560000        5.1434490000       13.1590390000
  O        15.9608640000        5.2049710000        6.2123850000
  O        11.3619660000       13.6116710000       14.4952830000
  O        17.3336610000       10.2331330000       13.9327140000
  O         1.3474240000       16.1151330000       10.1244170000
  O         9.1147060000        2.6986670000       17.6850240000
  O        15.2185140000        0.2436860000        0.7004000000
  O         0.9574300000        3.8418670000       13.6638700000
  O         1.9427120000       16.7439030000       13.0845420000
  O        12.3074460000        7.1119680000       17.1163040000
  O        18.3031670000        7.3089340000        6.1339540000
  O        16.8385220000        4.7227420000        2.0116770000
  O        11.9863890000       13.2592590000        5.7108740000
  O        16.0003630000       10.8945020000        2.9871130000
  O         4.6183450000        5.0620320000        6.3095550000
  O        18.0046220000       10.7343610000       18.4636990000
  O         4.2895270000        1.7832970000       16.8168350000
  O        18.5389810000       10.9503880000        8.1952950000
  O        11.1697410000        3.9639380000        6.8379400000
  O         0.9682170000       13.4018750000       10.4310320000
  O        17.1730800000        7.8333380000       11.6394210000
  O        11.1530860000        4.8468760000       11.7941450000
  O        14.9975100000       17.5229470000        5.0185160000
  O         1.7589190000       12.4777810000       19.5691330000
  O         6.1341460000        1.9001270000        3.3800900000
  O        12.3117000000        0.1562170000       11.8674190000
  O        10.5175550000        0.6832470000        0.9463220000
  O        10.0048730000       16.2185290000       12.6897850000
  O        12.3722210000       17.2469300000       17.9059740000
  O        11.0978090000       10.1031790000       17.4083510000
  H         3.5905010000        3.1108090000       11.5471520000
  H         3.2928660000        4.5642090000       11.8487060000
  H        16.6594430000        2.5733430000        2.4391340000
  H        15.2641660000        2.2873840000        2.9522850000
  H        14.4838850000       10.8458710000        7.8658890000
  H        13.5102920000       11.4034590000        6.8494700000
  H         3.4310600000        0.3301760000       -0.2969170000
  H         2.2975100000       -0.3000220000        0.4839870000
  H         7.7078710000        3.8737610000        1.5360400000
  H         8.6314100000        2.7308180000        1.1718220000
  H        15.3284900000       13.6249920000        4.7412270000
  H        15.0292340000       12.4577310000        5.6576570000
  H         6.0511700000        6.9813730000        3.4257750000
  H         5.7411810000        7.5668760000        4.7870200000
  H         8.1397700000       10.5759030000       15.9915460000
  H         8.4748900000       12.0356640000       16.2122000000
  H        15.6736440000        7.0451180000       14.4668280000
  H        16.9253380000        7.1712600000       15.3089950000
  H        10.6417860000        0.5180570000       13.5391390000
  H         9.7575070000        1.4864420000       14.2955620000
  H        10.6655170000       14.2039840000       17.2470420000
  H        11.8396890000       13.5726000000       17.9643770000
  H         1.7365280000       13.7819640000       14.7015210000
  H         2.7501800000       14.8200310000       15.1337480000
  H         6.5917490000       19.8788230000        2.2865480000
  H         7.7986490000       19.0726200000        2.7170410000
  H        17.0495180000        7.5325920000       19.3500480000
  H        17.6947330000        7.3536030000       17.9922720000
  H        -0.0249470000       18.6362720000       10.2030080000
  H        -0.4476850000       19.9709650000       10.7790130000
  H         2.7396040000       15.2376060000       17.4706890000
  H         4.0786010000       15.6658050000       16.9088830000
  H         5.0595650000       13.2182120000       13.3295890000
  H         3.5858650000       13.5298390000       13.4812230000
  H        13.1800170000        2.0917570000        3.8327740000
  H        12.7184110000        2.3552910000        2.4152540000
  H        12.0763880000        7.2878780000        0.6688540000
  H        11.4280830000        8.6286780000        0.3971010000
  H        16.0482720000        4.3232680000       17.3558520000
  H        15.7526810000        5.4202770000       16.3553070000
  H        18.9817030000        2.7863030000       13.3799570000
  H        18.8006410000        1.2882930000       13.5027480000
  H         4.5572320000        6.8459000000       17.4687660000
  H         5.6984890000        5.9806580000       16.9780670000
  H         6.8167450000        0.5030020000       11.2682420000
  H         7.1767810000        0.7625470000        9.8208640000
  H         3.7330350000       14.8776950000        6.2250530000
  H         3.2234490000       15.4441100000        4.9168510000
  H         6.9054190000        9.1283310000       12.3563090000
  H         7.9664570000       10.1819620000       12.5928550000
  H        15.3659450000        2.0792370000        9.1004660000
  H        14.9796730000        2.7193520000        7.7840530000
  H        14.9948550000       19.0682160000       14.0604950000
  H        16.0821920000       19.8032780000       13.3059900000
  H        11.0889310000       11.9019800000        7.9709340000
  H        12.0031880000       11.7425090000        9.1670100000
  H        10.1095200000       16.5720740000        3.7664710000
  H        10.1114350000       16.9271090000        5.2381510000
  H         2.0825520000        6.6169040000       19.1201580000
  H         1.1000510000        7.7626940000       19.2374330000
  H         9.2801040000        6.9965790000       14.2408620000
  H         8.4648510000        8.2454900000       13.9810980000
  H         7.9118510000        0.4332730000       14.2126610000
  H         6.4333300000        0.1257910000       14.1062300000
  H        11.4100890000        7.6390150000       11.3417320000
  H        10.7780040000        7.8354910000        9.9802040000
  H        12.9777680000       12.7188410000        0.8716650000
  H        11.9660190000       11.5931840000        0.8376880000
  H         9.2102670000        0.5214400000        4.5519950000
  H        10.3255760000        1.3161100000        5.1973490000
  H         2.2145750000       19.5895600000        3.4324520000
  H         0.9379820000       20.1438750000        4.0282220000
  H         7.5108410000        2.2232040000       15.1764300000
  H         8.1337460000        3.1835270000       16.1672200000
  H         8.0464080000       12.2512900000       12.0787910000
  H         9.3264380000       11.5288020000       11.7162600000
  H        10.7866400000       10.3855670000       -0.6068470000
  H         9.7153700000       10.3470240000        0.4621660000
  H         2.5423050000       10.3655500000        9.8540360000
  H         3.4010060000       11.0078540000        8.7854040000
  H         6.5929110000       13.4504490000       17.0944080000
  H         6.6626560000       13.5444920000       15.5850420000
  H         2.5591420000        0.5588010000       14.6129140000
  H         2.0964710000        0.9036630000       13.2133060000
  H        19.8957050000        6.5473530000       17.4615430000
  H        18.7119600000        5.6098280000       17.3534270000
  H         3.5314350000        3.2991620000        9.4098530000
  H         3.9649060000        1.9050180000        9.8103040000
  H         5.6386700000        8.0215030000       11.2024130000
  H         4.6204870000        6.9599280000       11.5605430000
  H        18.6117510000        1.6591520000        4.7208360000
  H        20.0096040000        2.1916350000        4.9539980000
  H         4.3070350000        1.8187790000        2.9068780000
  H         3.5385470000        0.9367950000        1.9459280000
  H        14.4272240000        3.6249120000       15.9388980000
  H        13.8720850000        4.0580800000       14.5987190000
  H        16.4361400000        2.2932240000       13.4867640000
  H        15.0161610000        2.3549530000       14.0080560000
  H        12.1949500000        1.5835700000       10.9341080000
  H        13.2130940000        2.6548950000       10.6061750000
  H        17.2589260000       15.4825430000       11.2098180000
  H        17.1830340000       16.6501900000       12.1704090000
  H        17.6549060000       18.3172880000        1.3760220000
  H        16.4793050000       18.4588760000        0.4327230000
  H         6.3404600000        8.9885430000        6.4716100000
  H         6.8377580000        9.6993210000        5.2308900000
  H        12.4962380000       16.6687340000       -0.0920990000
  H        13.5157010000       15.8492460000        0.6701530000
  H        17.3998180000       12.2617600000        5.4149080000
  H        17.9970810000       13.6160310000        5.7329030000
  H        10.7156110000       10.0456560000        9.1212550000
  H         9.9166730000        9.0274950000        8.3358000000
  H         7.5186110000       12.0805590000        6.0339760000
  H         6.9223950000       11.7372040000        4.6854480000
  H         2.8336620000       18.0479000000       11.8291130000
  H         3.6402880000       17.5216290000       10.6610850000
  H        10.2636000000        5.0136250000       13.3052540000
  H         8.9206340000        4.5593210000       13.8362380000
  H        14.7482630000       20.2322510000        7.6199230000
  H        15.3614820000       18.8704550000        7.8676520000
  H         5.6167380000        3.7611900000       14.4860990000
  H         4.2736830000        3.4932300000       13.8408880000
  H         4.5676720000       12.0336570000       17.1255130000
  H         3.7079120000       12.9099410000       16.2396050000
  H         2.5057170000        2.9095060000        5.2653650000
  H         3.4031380000        2.9107370000        4.0461320000
  H        18.5474650000       12.1931200000       15.9886750000
  H        17.6704750000       11.2844940000       16.8236490000
  H         3.8450970000       13.6871840000        3.3037430000
  H         2.9490030000       12.5571820000        2.8433000000
  H         1.9956400000        3.2499600000       18.7596070000
  H         2.1596930000        3.9105410000       17.4073440000
  H        17.6452000000        2.3044070000       16.3430050000
  H        16.8219960000        1.5713240000       17.3807040000
  H        19.9039650000       18.5909390000        2.5081930000
  H        19.2626000000       17.2239510000        2.6172240000
  H        17.8326920000       16.2235010000        5.8001330000
  H        19.3392820000       16.1833140000        5.6570680000
  H        17.0408900000        5.0255310000       13.0516590000
  H        16.7276550000        5.6254730000       11.6974630000
  H        18.6930010000        7.5316470000        8.3299240000
  H        18.3815940000        8.9276350000        8.8260500000
  H        12.5157060000       16.1723980000       10.6207460000
  H        11.2395640000       15.9537250000        9.8361830000
  H         6.1021440000       16.2753600000        6.0407140000
  H         7.2160920000       17.2055340000        6.4717480000
  H         4.2242880000       17.8294960000        1.1604770000
  H         5.3173530000       17.8218600000        2.2078760000
  H        15.6211760000       15.3117290000       15.7585440000
  H        15.3417710000       15.7053880000       14.3236720000
  H        14.8008230000        9.4184930000        6.2029100000
  H        14.9583300000        8.0091690000        6.7329030000
  H        18.8241610000       18.7493180000        6.5374550000
  H        17.5595570000       19.2296840000        5.8578070000
  H        17.8309930000       18.9973220000        3.6934190000
  H        16.9105270000       20.1658100000        3.9749730000
  H         7.1620200000       13.9875810000       13.0565520000
  H         6.3507460000       15.1119570000       13.6644230000
  H         7.7890220000        5.7503070000        5.3339080000
  H         9.2774190000        5.5488500000        5.1442100000
  H         4.0555730000       12.6014050000        9.9243240000
  H         4.0340800000       13.3040250000       11.2651290000
  H        11.6002160000        4.3935420000       19.1182160000
  H        10.7106220000        4.7504070000       20.2900370000
  H        11.5005980000       14.9274830000        3.1702110000
  H        12.1031450000       13.7570370000        2.4226210000
  H        20.0178890000        1.7171830000       15.0596100000
  H        20.2451180000        2.2378890000       16.4628660000
  H        13.8897460000       15.0873700000        3.4888110000
  H        14.9906710000       15.9389430000        4.0843630000
  H        18.3456430000        1.0509870000        7.3319730000
  H        19.4765030000        1.7993870000        8.0049870000
  H        19.5052710000       17.2823070000       17.1578310000
  H        18.8106450000       16.8592220000       15.8809640000
  H         0.6999150000       12.1443430000        2.9292720000
  H         0.5994740000       13.6423070000        2.7345690000
  H        17.1904960000       16.8350660000       14.6902170000
  H        17.5464010000       18.2357440000       14.2392970000
  H        18.1578800000       19.3520710000       17.5094780000
  H        19.2846810000       19.8761860000       16.6448860000
  H        14.0458940000        4.0451770000       18.2268650000
  H        13.7119110000        3.1521400000       19.4028050000
  H        18.9986310000        9.9978300000        2.6950910000
  H        20.0226520000        8.8838700000        2.7437680000
  H        11.1538860000       16.5126980000        1.3376130000
  H         9.7004430000       16.7083280000        0.9619420000
  H         8.6487860000        2.8986410000       10.5051580000
  H         8.3266010000        2.2809690000       11.8492470000
  H         9.6947080000       19.8458650000        2.3514000000
  H         9.7485850000       18.4448880000        2.9225880000
  H         2.1217750000       12.3162680000        7.6594660000
  H         3.2624050000       11.9071440000        6.7520110000
  H         6.0428040000       16.9398420000       16.0640010000
  H         7.3768470000       17.2391830000       15.4139090000
  H        11.2098240000       18.2103150000       17.2586660000
  H        10.1665340000       19.2359650000       16.8694560000
  H        14.4458840000        6.8390510000       11.0637090000
  H        13.3225390000        6.2025440000       10.2732340000
  H         6.6583890000        9.6490950000       14.4931740000
  H         5.5932800000       10.4361950000       15.2265980000
  H        17.7963790000       15.3279690000        0.9336980000
  H        17.4789310000       16.4299170000       -0.0546510000
  H         9.0035860000        9.6928890000        6.7034950000
  H         8.9655980000       11.1893830000        6.9292390000