#     Step Nr.          Time[fs]        Kin.[a.u.]          Temp[K]            Pot.[a.u.]        Cons Qty[a.u.]        UsedTime[s]
         0            0.000000         1.093026316       300.000000000     -4404.018173497     -4402.925147182         0.000000000
         1            0.500000         1.126180482       309.099735026     -4404.317499862     -4403.191319381       251.964761620
         2            1.000000         1.202213626       329.968347994     -4404.395026010     -4403.192812384        39.316552258
         3            1.500000         1.298613323       356.426914168     -4404.493178511     -4403.194565189        47.846466602
         4            2.000000         1.381422290       379.155269271     -4404.578189891     -4403.196767601        36.821010910
         5            2.500000         1.416760742       388.854519213     -4404.614446830     -4403.197686088        32.642336436
         6            3.000000         1.387475060       380.816556816     -4404.584388473     -4403.196913413        28.301061108
         7            3.500000         1.302485605       357.489729018     -4404.497000983     -4403.194515378        28.255723473
         8            4.000000         1.192316851       327.252006830     -4404.384281736     -4403.191964885        28.312801546
         9            4.500000         1.095354313       300.638959117     -4404.285444606     -4403.190090294        31.902148419
        10            5.000000         1.043524173       286.413279838     -4404.232264717     -4403.188740543        28.271853105
